# LAMMPS data file written by OVITO Basic 3.9.2

3840 atoms
2 atom types

-1.95227 98.3773 xlo xhi
-0.7 103.366 ylo yhi
-50.0 50.0 zlo zhi

Masses

1 10.811  # B
2 14.0067  # N

Atoms  # atomic

1 1 0.0 0.0 0.0
2 2 -1.25227 0.723 0.0
3 1 -1.25227 2.169 0.0
4 2 0.0 2.892 0.0
5 1 2.50455 0.0 0.0
6 2 1.25227 0.723 0.0
7 1 1.25227 2.169 0.0
8 2 2.50455 2.892 0.0
9 1 5.00909 0.0 0.0
10 2 3.75682 0.723 0.0
11 1 3.75682 2.169 0.0
12 2 5.00909 2.892 0.0
13 1 7.51364 0.0 0.0
14 2 6.26136 0.723 0.0
15 1 6.26136 2.169 0.0
16 2 7.51364 2.892 0.0
17 1 10.0182 0.0 0.0
18 2 8.76591 0.723 0.0
19 1 8.76591 2.169 0.0
20 2 10.0182 2.892 0.0
21 1 12.5227 0.0 0.0
22 2 11.2705 0.723 0.0
23 1 11.2705 2.169 0.0
24 2 12.5227 2.892 0.0
25 1 15.0273 0.0 0.0
26 2 13.775 0.723 0.0
27 1 13.775 2.169 0.0
28 2 15.0273 2.892 0.0
29 1 17.5318 0.0 0.0
30 2 16.2795 0.723 0.0
31 1 16.2795 2.169 0.0
32 2 17.5318 2.892 0.0
33 1 20.0364 0.0 0.0
34 2 18.7841 0.723 0.0
35 1 18.7841 2.169 0.0
36 2 20.0364 2.892 0.0
37 1 22.5409 0.0 0.0
38 2 21.2886 0.723 0.0
39 1 21.2886 2.169 0.0
40 2 22.5409 2.892 0.0
41 1 25.0455 0.0 0.0
42 2 23.7932 0.723 0.0
43 1 23.7932 2.169 0.0
44 2 25.0455 2.892 0.0
45 1 27.55 0.0 0.0
46 2 26.2977 0.723 0.0
47 1 26.2977 2.169 0.0
48 2 27.55 2.892 0.0
49 1 30.0545 0.0 0.0
50 2 28.8023 0.723 0.0
51 1 28.8023 2.169 0.0
52 2 30.0545 2.892 0.0
53 1 32.5591 0.0 0.0
54 2 31.3068 0.723 0.0
55 1 31.3068 2.169 0.0
56 2 32.5591 2.892 0.0
57 1 35.0636 0.0 0.0
58 2 33.8114 0.723 0.0
59 1 33.8114 2.169 0.0
60 2 35.0636 2.892 0.0
61 1 37.5682 0.0 0.0
62 2 36.3159 0.723 0.0
63 1 36.3159 2.169 0.0
64 2 37.5682 2.892 0.0
65 1 40.0727 0.0 0.0
66 2 38.8205 0.723 0.0
67 1 38.8205 2.169 0.0
68 2 40.0727 2.892 0.0
69 1 42.5773 0.0 0.0
70 2 41.325 0.723 0.0
71 1 41.325 2.169 0.0
72 2 42.5773 2.892 0.0
73 1 45.0818 0.0 0.0
74 2 43.8295 0.723 0.0
75 1 43.8295 2.169 0.0
76 2 45.0818 2.892 0.0
77 1 47.5864 0.0 0.0
78 2 46.3341 0.723 0.0
79 1 46.3341 2.169 0.0
80 2 47.5864 2.892 0.0
81 1 50.0909 0.0 0.0
82 2 48.8386 0.723 0.0
83 1 48.8386 2.169 0.0
84 2 50.0909 2.892 0.0
85 1 52.5955 0.0 0.0
86 2 51.3432 0.723 0.0
87 1 51.3432 2.169 0.0
88 2 52.5955 2.892 0.0
89 1 55.1 0.0 0.0
90 2 53.8477 0.723 0.0
91 1 53.8477 2.169 0.0
92 2 55.1 2.892 0.0
93 1 57.6045 0.0 0.0
94 2 56.3523 0.723 0.0
95 1 56.3523 2.169 0.0
96 2 57.6045 2.892 0.0
97 1 60.1091 0.0 0.0
98 2 58.8568 0.723 0.0
99 1 58.8568 2.169 0.0
100 2 60.1091 2.892 0.0
101 1 62.6136 0.0 0.0
102 2 61.3614 0.723 0.0
103 1 61.3614 2.169 0.0
104 2 62.6136 2.892 0.0
105 1 65.1182 0.0 0.0
106 2 63.8659 0.723 0.0
107 1 63.8659 2.169 0.0
108 2 65.1182 2.892 0.0
109 1 67.6227 0.0 0.0
110 2 66.3705 0.723 0.0
111 1 66.3705 2.169 0.0
112 2 67.6227 2.892 0.0
113 1 70.1273 0.0 0.0
114 2 68.875 0.723 0.0
115 1 68.875 2.169 0.0
116 2 70.1273 2.892 0.0
117 1 72.6318 0.0 0.0
118 2 71.3795 0.723 0.0
119 1 71.3795 2.169 0.0
120 2 72.6318 2.892 0.0
121 1 75.1364 0.0 0.0
122 2 73.8841 0.723 0.0
123 1 73.8841 2.169 0.0
124 2 75.1364 2.892 0.0
125 1 77.6409 0.0 0.0
126 2 76.3886 0.723 0.0
127 1 76.3886 2.169 0.0
128 2 77.6409 2.892 0.0
129 1 80.1455 0.0 0.0
130 2 78.8932 0.723 0.0
131 1 78.8932 2.169 0.0
132 2 80.1455 2.892 0.0
133 1 82.65 0.0 0.0
134 2 81.3977 0.723 0.0
135 1 81.3977 2.169 0.0
136 2 82.65 2.892 0.0
137 1 85.1545 0.0 0.0
138 2 83.9023 0.723 0.0
139 1 83.9023 2.169 0.0
140 2 85.1545 2.892 0.0
141 1 87.6591 0.0 0.0
142 2 86.4068 0.723 0.0
143 1 86.4068 2.169 0.0
144 2 87.6591 2.892 0.0
145 1 90.1636 0.0 0.0
146 2 88.9114 0.723 0.0
147 1 88.9114 2.169 0.0
148 2 90.1636 2.892 0.0
149 1 92.6682 0.0 0.0
150 2 91.4159 0.723 0.0
151 1 91.4159 2.169 0.0
152 2 92.6682 2.892 0.0
153 1 95.1727 0.0 0.0
154 2 93.9205 0.723 0.0
155 1 93.9205 2.169 0.0
156 2 95.1727 2.892 0.0
157 1 97.6773 0.0 0.0
158 2 96.425 0.723 0.0
159 1 96.425 2.169 0.0
160 2 97.6773 2.892 0.0
161 1 0.0 4.338 0.0
162 2 -1.25227 5.061 0.0
163 1 -1.25227 6.507 0.0
164 2 0.0 7.23 0.0
165 1 2.50455 4.338 0.0
166 2 1.25227 5.061 0.0
167 1 1.25227 6.507 0.0
168 2 2.50455 7.23 0.0
169 1 5.00909 4.338 0.0
170 2 3.75682 5.061 0.0
171 1 3.75682 6.507 0.0
172 2 5.00909 7.23 0.0
173 1 7.51364 4.338 0.0
174 2 6.26136 5.061 0.0
175 1 6.26136 6.507 0.0
176 2 7.51364 7.23 0.0
177 1 10.0182 4.338 0.0
178 2 8.76591 5.061 0.0
179 1 8.76591 6.507 0.0
180 2 10.0182 7.23 0.0
181 1 12.5227 4.338 0.0
182 2 11.2705 5.061 0.0
183 1 11.2705 6.507 0.0
184 2 12.5227 7.23 0.0
185 1 15.0273 4.338 0.0
186 2 13.775 5.061 0.0
187 1 13.775 6.507 0.0
188 2 15.0273 7.23 0.0
189 1 17.5318 4.338 0.0
190 2 16.2795 5.061 0.0
191 1 16.2795 6.507 0.0
192 2 17.5318 7.23 0.0
193 1 20.0364 4.338 0.0
194 2 18.7841 5.061 0.0
195 1 18.7841 6.507 0.0
196 2 20.0364 7.23 0.0
197 1 22.5409 4.338 0.0
198 2 21.2886 5.061 0.0
199 1 21.2886 6.507 0.0
200 2 22.5409 7.23 0.0
201 1 25.0455 4.338 0.0
202 2 23.7932 5.061 0.0
203 1 23.7932 6.507 0.0
204 2 25.0455 7.23 0.0
205 1 27.55 4.338 0.0
206 2 26.2977 5.061 0.0
207 1 26.2977 6.507 0.0
208 2 27.55 7.23 0.0
209 1 30.0545 4.338 0.0
210 2 28.8023 5.061 0.0
211 1 28.8023 6.507 0.0
212 2 30.0545 7.23 0.0
213 1 32.5591 4.338 0.0
214 2 31.3068 5.061 0.0
215 1 31.3068 6.507 0.0
216 2 32.5591 7.23 0.0
217 1 35.0636 4.338 0.0
218 2 33.8114 5.061 0.0
219 1 33.8114 6.507 0.0
220 2 35.0636 7.23 0.0
221 1 37.5682 4.338 0.0
222 2 36.3159 5.061 0.0
223 1 36.3159 6.507 0.0
224 2 37.5682 7.23 0.0
225 1 40.0727 4.338 0.0
226 2 38.8205 5.061 0.0
227 1 38.8205 6.507 0.0
228 2 40.0727 7.23 0.0
229 1 42.5773 4.338 0.0
230 2 41.325 5.061 0.0
231 1 41.325 6.507 0.0
232 2 42.5773 7.23 0.0
233 1 45.0818 4.338 0.0
234 2 43.8295 5.061 0.0
235 1 43.8295 6.507 0.0
236 2 45.0818 7.23 0.0
237 1 47.5864 4.338 0.0
238 2 46.3341 5.061 0.0
239 1 46.3341 6.507 0.0
240 2 47.5864 7.23 0.0
241 1 50.0909 4.338 0.0
242 2 48.8386 5.061 0.0
243 1 48.8386 6.507 0.0
244 2 50.0909 7.23 0.0
245 1 52.5955 4.338 0.0
246 2 51.3432 5.061 0.0
247 1 51.3432 6.507 0.0
248 2 52.5955 7.23 0.0
249 1 55.1 4.338 0.0
250 2 53.8477 5.061 0.0
251 1 53.8477 6.507 0.0
252 2 55.1 7.23 0.0
253 1 57.6045 4.338 0.0
254 2 56.3523 5.061 0.0
255 1 56.3523 6.507 0.0
256 2 57.6045 7.23 0.0
257 1 60.1091 4.338 0.0
258 2 58.8568 5.061 0.0
259 1 58.8568 6.507 0.0
260 2 60.1091 7.23 0.0
261 1 62.6136 4.338 0.0
262 2 61.3614 5.061 0.0
263 1 61.3614 6.507 0.0
264 2 62.6136 7.23 0.0
265 1 65.1182 4.338 0.0
266 2 63.8659 5.061 0.0
267 1 63.8659 6.507 0.0
268 2 65.1182 7.23 0.0
269 1 67.6227 4.338 0.0
270 2 66.3705 5.061 0.0
271 1 66.3705 6.507 0.0
272 2 67.6227 7.23 0.0
273 1 70.1273 4.338 0.0
274 2 68.875 5.061 0.0
275 1 68.875 6.507 0.0
276 2 70.1273 7.23 0.0
277 1 72.6318 4.338 0.0
278 2 71.3795 5.061 0.0
279 1 71.3795 6.507 0.0
280 2 72.6318 7.23 0.0
281 1 75.1364 4.338 0.0
282 2 73.8841 5.061 0.0
283 1 73.8841 6.507 0.0
284 2 75.1364 7.23 0.0
285 1 77.6409 4.338 0.0
286 2 76.3886 5.061 0.0
287 1 76.3886 6.507 0.0
288 2 77.6409 7.23 0.0
289 1 80.1455 4.338 0.0
290 2 78.8932 5.061 0.0
291 1 78.8932 6.507 0.0
292 2 80.1455 7.23 0.0
293 1 82.65 4.338 0.0
294 2 81.3977 5.061 0.0
295 1 81.3977 6.507 0.0
296 2 82.65 7.23 0.0
297 1 85.1545 4.338 0.0
298 2 83.9023 5.061 0.0
299 1 83.9023 6.507 0.0
300 2 85.1545 7.23 0.0
301 1 87.6591 4.338 0.0
302 2 86.4068 5.061 0.0
303 1 86.4068 6.507 0.0
304 2 87.6591 7.23 0.0
305 1 90.1636 4.338 0.0
306 2 88.9114 5.061 0.0
307 1 88.9114 6.507 0.0
308 2 90.1636 7.23 0.0
309 1 92.6682 4.338 0.0
310 2 91.4159 5.061 0.0
311 1 91.4159 6.507 0.0
312 2 92.6682 7.23 0.0
313 1 95.1727 4.338 0.0
314 2 93.9205 5.061 0.0
315 1 93.9205 6.507 0.0
316 2 95.1727 7.23 0.0
317 1 97.6773 4.338 0.0
318 2 96.425 5.061 0.0
319 1 96.425 6.507 0.0
320 2 97.6773 7.23 0.0
321 1 0.0 8.676 0.0
322 2 -1.25227 9.399 0.0
323 1 -1.25227 10.845 0.0
324 2 0.0 11.568 0.0
325 1 2.50455 8.676 0.0
326 2 1.25227 9.399 0.0
327 1 1.25227 10.845 0.0
328 2 2.50455 11.568 0.0
329 1 5.00909 8.676 0.0
330 2 3.75682 9.399 0.0
331 1 3.75682 10.845 0.0
332 2 5.00909 11.568 0.0
333 1 7.51364 8.676 0.0
334 2 6.26136 9.399 0.0
335 1 6.26136 10.845 0.0
336 2 7.51364 11.568 0.0
337 1 10.0182 8.676 0.0
338 2 8.76591 9.399 0.0
339 1 8.76591 10.845 0.0
340 2 10.0182 11.568 0.0
341 1 12.5227 8.676 0.0
342 2 11.2705 9.399 0.0
343 1 11.2705 10.845 0.0
344 2 12.5227 11.568 0.0
345 1 15.0273 8.676 0.0
346 2 13.775 9.399 0.0
347 1 13.775 10.845 0.0
348 2 15.0273 11.568 0.0
349 1 17.5318 8.676 0.0
350 2 16.2795 9.399 0.0
351 1 16.2795 10.845 0.0
352 2 17.5318 11.568 0.0
353 1 20.0364 8.676 0.0
354 2 18.7841 9.399 0.0
355 1 18.7841 10.845 0.0
356 2 20.0364 11.568 0.0
357 1 22.5409 8.676 0.0
358 2 21.2886 9.399 0.0
359 1 21.2886 10.845 0.0
360 2 22.5409 11.568 0.0
361 1 25.0455 8.676 0.0
362 2 23.7932 9.399 0.0
363 1 23.7932 10.845 0.0
364 2 25.0455 11.568 0.0
365 1 27.55 8.676 0.0
366 2 26.2977 9.399 0.0
367 1 26.2977 10.845 0.0
368 2 27.55 11.568 0.0
369 1 30.0545 8.676 0.0
370 2 28.8023 9.399 0.0
371 1 28.8023 10.845 0.0
372 2 30.0545 11.568 0.0
373 1 32.5591 8.676 0.0
374 2 31.3068 9.399 0.0
375 1 31.3068 10.845 0.0
376 2 32.5591 11.568 0.0
377 1 35.0636 8.676 0.0
378 2 33.8114 9.399 0.0
379 1 33.8114 10.845 0.0
380 2 35.0636 11.568 0.0
381 1 37.5682 8.676 0.0
382 2 36.3159 9.399 0.0
383 1 36.3159 10.845 0.0
384 2 37.5682 11.568 0.0
385 1 40.0727 8.676 0.0
386 2 38.8205 9.399 0.0
387 1 38.8205 10.845 0.0
388 2 40.0727 11.568 0.0
389 1 42.5773 8.676 0.0
390 2 41.325 9.399 0.0
391 1 41.325 10.845 0.0
392 2 42.5773 11.568 0.0
393 1 45.0818 8.676 0.0
394 2 43.8295 9.399 0.0
395 1 43.8295 10.845 0.0
396 2 45.0818 11.568 0.0
397 1 47.5864 8.676 0.0
398 2 46.3341 9.399 0.0
399 1 46.3341 10.845 0.0
400 2 47.5864 11.568 0.0
401 1 50.0909 8.676 0.0
402 2 48.8386 9.399 0.0
403 1 48.8386 10.845 0.0
404 2 50.0909 11.568 0.0
405 1 52.5955 8.676 0.0
406 2 51.3432 9.399 0.0
407 1 51.3432 10.845 0.0
408 2 52.5955 11.568 0.0
409 1 55.1 8.676 0.0
410 2 53.8477 9.399 0.0
411 1 53.8477 10.845 0.0
412 2 55.1 11.568 0.0
413 1 57.6045 8.676 0.0
414 2 56.3523 9.399 0.0
415 1 56.3523 10.845 0.0
416 2 57.6045 11.568 0.0
417 1 60.1091 8.676 0.0
418 2 58.8568 9.399 0.0
419 1 58.8568 10.845 0.0
420 2 60.1091 11.568 0.0
421 1 62.6136 8.676 0.0
422 2 61.3614 9.399 0.0
423 1 61.3614 10.845 0.0
424 2 62.6136 11.568 0.0
425 1 65.1182 8.676 0.0
426 2 63.8659 9.399 0.0
427 1 63.8659 10.845 0.0
428 2 65.1182 11.568 0.0
429 1 67.6227 8.676 0.0
430 2 66.3705 9.399 0.0
431 1 66.3705 10.845 0.0
432 2 67.6227 11.568 0.0
433 1 70.1273 8.676 0.0
434 2 68.875 9.399 0.0
435 1 68.875 10.845 0.0
436 2 70.1273 11.568 0.0
437 1 72.6318 8.676 0.0
438 2 71.3795 9.399 0.0
439 1 71.3795 10.845 0.0
440 2 72.6318 11.568 0.0
441 1 75.1364 8.676 0.0
442 2 73.8841 9.399 0.0
443 1 73.8841 10.845 0.0
444 2 75.1364 11.568 0.0
445 1 77.6409 8.676 0.0
446 2 76.3886 9.399 0.0
447 1 76.3886 10.845 0.0
448 2 77.6409 11.568 0.0
449 1 80.1455 8.676 0.0
450 2 78.8932 9.399 0.0
451 1 78.8932 10.845 0.0
452 2 80.1455 11.568 0.0
453 1 82.65 8.676 0.0
454 2 81.3977 9.399 0.0
455 1 81.3977 10.845 0.0
456 2 82.65 11.568 0.0
457 1 85.1545 8.676 0.0
458 2 83.9023 9.399 0.0
459 1 83.9023 10.845 0.0
460 2 85.1545 11.568 0.0
461 1 87.6591 8.676 0.0
462 2 86.4068 9.399 0.0
463 1 86.4068 10.845 0.0
464 2 87.6591 11.568 0.0
465 1 90.1636 8.676 0.0
466 2 88.9114 9.399 0.0
467 1 88.9114 10.845 0.0
468 2 90.1636 11.568 0.0
469 1 92.6682 8.676 0.0
470 2 91.4159 9.399 0.0
471 1 91.4159 10.845 0.0
472 2 92.6682 11.568 0.0
473 1 95.1727 8.676 0.0
474 2 93.9205 9.399 0.0
475 1 93.9205 10.845 0.0
476 2 95.1727 11.568 0.0
477 1 97.6773 8.676 0.0
478 2 96.425 9.399 0.0
479 1 96.425 10.845 0.0
480 2 97.6773 11.568 0.0
481 1 0.0 13.014 0.0
482 2 -1.25227 13.737 0.0
483 1 -1.25227 15.183 0.0
484 2 0.0 15.906 0.0
485 1 2.50455 13.014 0.0
486 2 1.25227 13.737 0.0
487 1 1.25227 15.183 0.0
488 2 2.50455 15.906 0.0
489 1 5.00909 13.014 0.0
490 2 3.75682 13.737 0.0
491 1 3.75682 15.183 0.0
492 2 5.00909 15.906 0.0
493 1 7.51364 13.014 0.0
494 2 6.26136 13.737 0.0
495 1 6.26136 15.183 0.0
496 2 7.51364 15.906 0.0
497 1 10.0182 13.014 0.0
498 2 8.76591 13.737 0.0
499 1 8.76591 15.183 0.0
500 2 10.0182 15.906 0.0
501 1 12.5227 13.014 0.0
502 2 11.2705 13.737 0.0
503 1 11.2705 15.183 0.0
504 2 12.5227 15.906 0.0
505 1 15.0273 13.014 0.0
506 2 13.775 13.737 0.0
507 1 13.775 15.183 0.0
508 2 15.0273 15.906 0.0
509 1 17.5318 13.014 0.0
510 2 16.2795 13.737 0.0
511 1 16.2795 15.183 0.0
512 2 17.5318 15.906 0.0
513 1 20.0364 13.014 0.0
514 2 18.7841 13.737 0.0
515 1 18.7841 15.183 0.0
516 2 20.0364 15.906 0.0
517 1 22.5409 13.014 0.0
518 2 21.2886 13.737 0.0
519 1 21.2886 15.183 0.0
520 2 22.5409 15.906 0.0
521 1 25.0455 13.014 0.0
522 2 23.7932 13.737 0.0
523 1 23.7932 15.183 0.0
524 2 25.0455 15.906 0.0
525 1 27.55 13.014 0.0
526 2 26.2977 13.737 0.0
527 1 26.2977 15.183 0.0
528 2 27.55 15.906 0.0
529 1 30.0545 13.014 0.0
530 2 28.8023 13.737 0.0
531 1 28.8023 15.183 0.0
532 2 30.0545 15.906 0.0
533 1 32.5591 13.014 0.0
534 2 31.3068 13.737 0.0
535 1 31.3068 15.183 0.0
536 2 32.5591 15.906 0.0
537 1 35.0636 13.014 0.0
538 2 33.8114 13.737 0.0
539 1 33.8114 15.183 0.0
540 2 35.0636 15.906 0.0
541 1 37.5682 13.014 0.0
542 2 36.3159 13.737 0.0
543 1 36.3159 15.183 0.0
544 2 37.5682 15.906 0.0
545 1 40.0727 13.014 0.0
546 2 38.8205 13.737 0.0
547 1 38.8205 15.183 0.0
548 2 40.0727 15.906 0.0
549 1 42.5773 13.014 0.0
550 2 41.325 13.737 0.0
551 1 41.325 15.183 0.0
552 2 42.5773 15.906 0.0
553 1 45.0818 13.014 0.0
554 2 43.8295 13.737 0.0
555 1 43.8295 15.183 0.0
556 2 45.0818 15.906 0.0
557 1 47.5864 13.014 0.0
558 2 46.3341 13.737 0.0
559 1 46.3341 15.183 0.0
560 2 47.5864 15.906 0.0
561 1 50.0909 13.014 0.0
562 2 48.8386 13.737 0.0
563 1 48.8386 15.183 0.0
564 2 50.0909 15.906 0.0
565 1 52.5955 13.014 0.0
566 2 51.3432 13.737 0.0
567 1 51.3432 15.183 0.0
568 2 52.5955 15.906 0.0
569 1 55.1 13.014 0.0
570 2 53.8477 13.737 0.0
571 1 53.8477 15.183 0.0
572 2 55.1 15.906 0.0
573 1 57.6045 13.014 0.0
574 2 56.3523 13.737 0.0
575 1 56.3523 15.183 0.0
576 2 57.6045 15.906 0.0
577 1 60.1091 13.014 0.0
578 2 58.8568 13.737 0.0
579 1 58.8568 15.183 0.0
580 2 60.1091 15.906 0.0
581 1 62.6136 13.014 0.0
582 2 61.3614 13.737 0.0
583 1 61.3614 15.183 0.0
584 2 62.6136 15.906 0.0
585 1 65.1182 13.014 0.0
586 2 63.8659 13.737 0.0
587 1 63.8659 15.183 0.0
588 2 65.1182 15.906 0.0
589 1 67.6227 13.014 0.0
590 2 66.3705 13.737 0.0
591 1 66.3705 15.183 0.0
592 2 67.6227 15.906 0.0
593 1 70.1273 13.014 0.0
594 2 68.875 13.737 0.0
595 1 68.875 15.183 0.0
596 2 70.1273 15.906 0.0
597 1 72.6318 13.014 0.0
598 2 71.3795 13.737 0.0
599 1 71.3795 15.183 0.0
600 2 72.6318 15.906 0.0
601 1 75.1364 13.014 0.0
602 2 73.8841 13.737 0.0
603 1 73.8841 15.183 0.0
604 2 75.1364 15.906 0.0
605 1 77.6409 13.014 0.0
606 2 76.3886 13.737 0.0
607 1 76.3886 15.183 0.0
608 2 77.6409 15.906 0.0
609 1 80.1455 13.014 0.0
610 2 78.8932 13.737 0.0
611 1 78.8932 15.183 0.0
612 2 80.1455 15.906 0.0
613 1 82.65 13.014 0.0
614 2 81.3977 13.737 0.0
615 1 81.3977 15.183 0.0
616 2 82.65 15.906 0.0
617 1 85.1545 13.014 0.0
618 2 83.9023 13.737 0.0
619 1 83.9023 15.183 0.0
620 2 85.1545 15.906 0.0
621 1 87.6591 13.014 0.0
622 2 86.4068 13.737 0.0
623 1 86.4068 15.183 0.0
624 2 87.6591 15.906 0.0
625 1 90.1636 13.014 0.0
626 2 88.9114 13.737 0.0
627 1 88.9114 15.183 0.0
628 2 90.1636 15.906 0.0
629 1 92.6682 13.014 0.0
630 2 91.4159 13.737 0.0
631 1 91.4159 15.183 0.0
632 2 92.6682 15.906 0.0
633 1 95.1727 13.014 0.0
634 2 93.9205 13.737 0.0
635 1 93.9205 15.183 0.0
636 2 95.1727 15.906 0.0
637 1 97.6773 13.014 0.0
638 2 96.425 13.737 0.0
639 1 96.425 15.183 0.0
640 2 97.6773 15.906 0.0
641 1 0.0 17.352 0.0
642 2 -1.25227 18.075 0.0
643 1 -1.25227 19.521 0.0
644 2 0.0 20.244 0.0
645 1 2.50455 17.352 0.0
646 2 1.25227 18.075 0.0
647 1 1.25227 19.521 0.0
648 2 2.50455 20.244 0.0
649 1 5.00909 17.352 0.0
650 2 3.75682 18.075 0.0
651 1 3.75682 19.521 0.0
652 2 5.00909 20.244 0.0
653 1 7.51364 17.352 0.0
654 2 6.26136 18.075 0.0
655 1 6.26136 19.521 0.0
656 2 7.51364 20.244 0.0
657 1 10.0182 17.352 0.0
658 2 8.76591 18.075 0.0
659 1 8.76591 19.521 0.0
660 2 10.0182 20.244 0.0
661 1 12.5227 17.352 0.0
662 2 11.2705 18.075 0.0
663 1 11.2705 19.521 0.0
664 2 12.5227 20.244 0.0
665 1 15.0273 17.352 0.0
666 2 13.775 18.075 0.0
667 1 13.775 19.521 0.0
668 2 15.0273 20.244 0.0
669 1 17.5318 17.352 0.0
670 2 16.2795 18.075 0.0
671 1 16.2795 19.521 0.0
672 2 17.5318 20.244 0.0
673 1 20.0364 17.352 0.0
674 2 18.7841 18.075 0.0
675 1 18.7841 19.521 0.0
676 2 20.0364 20.244 0.0
677 1 22.5409 17.352 0.0
678 2 21.2886 18.075 0.0
679 1 21.2886 19.521 0.0
680 2 22.5409 20.244 0.0
681 1 25.0455 17.352 0.0
682 2 23.7932 18.075 0.0
683 1 23.7932 19.521 0.0
684 2 25.0455 20.244 0.0
685 1 27.55 17.352 0.0
686 2 26.2977 18.075 0.0
687 1 26.2977 19.521 0.0
688 2 27.55 20.244 0.0
689 1 30.0545 17.352 0.0
690 2 28.8023 18.075 0.0
691 1 28.8023 19.521 0.0
692 2 30.0545 20.244 0.0
693 1 32.5591 17.352 0.0
694 2 31.3068 18.075 0.0
695 1 31.3068 19.521 0.0
696 2 32.5591 20.244 0.0
697 1 35.0636 17.352 0.0
698 2 33.8114 18.075 0.0
699 1 33.8114 19.521 0.0
700 2 35.0636 20.244 0.0
701 1 37.5682 17.352 0.0
702 2 36.3159 18.075 0.0
703 1 36.3159 19.521 0.0
704 2 37.5682 20.244 0.0
705 1 40.0727 17.352 0.0
706 2 38.8205 18.075 0.0
707 1 38.8205 19.521 0.0
708 2 40.0727 20.244 0.0
709 1 42.5773 17.352 0.0
710 2 41.325 18.075 0.0
711 1 41.325 19.521 0.0
712 2 42.5773 20.244 0.0
713 1 45.0818 17.352 0.0
714 2 43.8295 18.075 0.0
715 1 43.8295 19.521 0.0
716 2 45.0818 20.244 0.0
717 1 47.5864 17.352 0.0
718 2 46.3341 18.075 0.0
719 1 46.3341 19.521 0.0
720 2 47.5864 20.244 0.0
721 1 50.0909 17.352 0.0
722 2 48.8386 18.075 0.0
723 1 48.8386 19.521 0.0
724 2 50.0909 20.244 0.0
725 1 52.5955 17.352 0.0
726 2 51.3432 18.075 0.0
727 1 51.3432 19.521 0.0
728 2 52.5955 20.244 0.0
729 1 55.1 17.352 0.0
730 2 53.8477 18.075 0.0
731 1 53.8477 19.521 0.0
732 2 55.1 20.244 0.0
733 1 57.6045 17.352 0.0
734 2 56.3523 18.075 0.0
735 1 56.3523 19.521 0.0
736 2 57.6045 20.244 0.0
737 1 60.1091 17.352 0.0
738 2 58.8568 18.075 0.0
739 1 58.8568 19.521 0.0
740 2 60.1091 20.244 0.0
741 1 62.6136 17.352 0.0
742 2 61.3614 18.075 0.0
743 1 61.3614 19.521 0.0
744 2 62.6136 20.244 0.0
745 1 65.1182 17.352 0.0
746 2 63.8659 18.075 0.0
747 1 63.8659 19.521 0.0
748 2 65.1182 20.244 0.0
749 1 67.6227 17.352 0.0
750 2 66.3705 18.075 0.0
751 1 66.3705 19.521 0.0
752 2 67.6227 20.244 0.0
753 1 70.1273 17.352 0.0
754 2 68.875 18.075 0.0
755 1 68.875 19.521 0.0
756 2 70.1273 20.244 0.0
757 1 72.6318 17.352 0.0
758 2 71.3795 18.075 0.0
759 1 71.3795 19.521 0.0
760 2 72.6318 20.244 0.0
761 1 75.1364 17.352 0.0
762 2 73.8841 18.075 0.0
763 1 73.8841 19.521 0.0
764 2 75.1364 20.244 0.0
765 1 77.6409 17.352 0.0
766 2 76.3886 18.075 0.0
767 1 76.3886 19.521 0.0
768 2 77.6409 20.244 0.0
769 1 80.1455 17.352 0.0
770 2 78.8932 18.075 0.0
771 1 78.8932 19.521 0.0
772 2 80.1455 20.244 0.0
773 1 82.65 17.352 0.0
774 2 81.3977 18.075 0.0
775 1 81.3977 19.521 0.0
776 2 82.65 20.244 0.0
777 1 85.1545 17.352 0.0
778 2 83.9023 18.075 0.0
779 1 83.9023 19.521 0.0
780 2 85.1545 20.244 0.0
781 1 87.6591 17.352 0.0
782 2 86.4068 18.075 0.0
783 1 86.4068 19.521 0.0
784 2 87.6591 20.244 0.0
785 1 90.1636 17.352 0.0
786 2 88.9114 18.075 0.0
787 1 88.9114 19.521 0.0
788 2 90.1636 20.244 0.0
789 1 92.6682 17.352 0.0
790 2 91.4159 18.075 0.0
791 1 91.4159 19.521 0.0
792 2 92.6682 20.244 0.0
793 1 95.1727 17.352 0.0
794 2 93.9205 18.075 0.0
795 1 93.9205 19.521 0.0
796 2 95.1727 20.244 0.0
797 1 97.6773 17.352 0.0
798 2 96.425 18.075 0.0
799 1 96.425 19.521 0.0
800 2 97.6773 20.244 0.0
801 1 0.0 21.69 0.0
802 2 -1.25227 22.413 0.0
803 1 -1.25227 23.859 0.0
804 2 0.0 24.582 0.0
805 1 2.50455 21.69 0.0
806 2 1.25227 22.413 0.0
807 1 1.25227 23.859 0.0
808 2 2.50455 24.582 0.0
809 1 5.00909 21.69 0.0
810 2 3.75682 22.413 0.0
811 1 3.75682 23.859 0.0
812 2 5.00909 24.582 0.0
813 1 7.51364 21.69 0.0
814 2 6.26136 22.413 0.0
815 1 6.26136 23.859 0.0
816 2 7.51364 24.582 0.0
817 1 10.0182 21.69 0.0
818 2 8.76591 22.413 0.0
819 1 8.76591 23.859 0.0
820 2 10.0182 24.582 0.0
821 1 12.5227 21.69 0.0
822 2 11.2705 22.413 0.0
823 1 11.2705 23.859 0.0
824 2 12.5227 24.582 0.0
825 1 15.0273 21.69 0.0
826 2 13.775 22.413 0.0
827 1 13.775 23.859 0.0
828 2 15.0273 24.582 0.0
829 1 17.5318 21.69 0.0
830 2 16.2795 22.413 0.0
831 1 16.2795 23.859 0.0
832 2 17.5318 24.582 0.0
833 1 20.0364 21.69 0.0
834 2 18.7841 22.413 0.0
835 1 18.7841 23.859 0.0
836 2 20.0364 24.582 0.0
837 1 22.5409 21.69 0.0
838 2 21.2886 22.413 0.0
839 1 21.2886 23.859 0.0
840 2 22.5409 24.582 0.0
841 1 25.0455 21.69 0.0
842 2 23.7932 22.413 0.0
843 1 23.7932 23.859 0.0
844 2 25.0455 24.582 0.0
845 1 27.55 21.69 0.0
846 2 26.2977 22.413 0.0
847 1 26.2977 23.859 0.0
848 2 27.55 24.582 0.0
849 1 30.0545 21.69 0.0
850 2 28.8023 22.413 0.0
851 1 28.8023 23.859 0.0
852 2 30.0545 24.582 0.0
853 1 32.5591 21.69 0.0
854 2 31.3068 22.413 0.0
855 1 31.3068 23.859 0.0
856 2 32.5591 24.582 0.0
857 1 35.0636 21.69 0.0
858 2 33.8114 22.413 0.0
859 1 33.8114 23.859 0.0
860 2 35.0636 24.582 0.0
861 1 37.5682 21.69 0.0
862 2 36.3159 22.413 0.0
863 1 36.3159 23.859 0.0
864 2 37.5682 24.582 0.0
865 1 40.0727 21.69 0.0
866 2 38.8205 22.413 0.0
867 1 38.8205 23.859 0.0
868 2 40.0727 24.582 0.0
869 1 42.5773 21.69 0.0
870 2 41.325 22.413 0.0
871 1 41.325 23.859 0.0
872 2 42.5773 24.582 0.0
873 1 45.0818 21.69 0.0
874 2 43.8295 22.413 0.0
875 1 43.8295 23.859 0.0
876 2 45.0818 24.582 0.0
877 1 47.5864 21.69 0.0
878 2 46.3341 22.413 0.0
879 1 46.3341 23.859 0.0
880 2 47.5864 24.582 0.0
881 1 50.0909 21.69 0.0
882 2 48.8386 22.413 0.0
883 1 48.8386 23.859 0.0
884 2 50.0909 24.582 0.0
885 1 52.5955 21.69 0.0
886 2 51.3432 22.413 0.0
887 1 51.3432 23.859 0.0
888 2 52.5955 24.582 0.0
889 1 55.1 21.69 0.0
890 2 53.8477 22.413 0.0
891 1 53.8477 23.859 0.0
892 2 55.1 24.582 0.0
893 1 57.6045 21.69 0.0
894 2 56.3523 22.413 0.0
895 1 56.3523 23.859 0.0
896 2 57.6045 24.582 0.0
897 1 60.1091 21.69 0.0
898 2 58.8568 22.413 0.0
899 1 58.8568 23.859 0.0
900 2 60.1091 24.582 0.0
901 1 62.6136 21.69 0.0
902 2 61.3614 22.413 0.0
903 1 61.3614 23.859 0.0
904 2 62.6136 24.582 0.0
905 1 65.1182 21.69 0.0
906 2 63.8659 22.413 0.0
907 1 63.8659 23.859 0.0
908 2 65.1182 24.582 0.0
909 1 67.6227 21.69 0.0
910 2 66.3705 22.413 0.0
911 1 66.3705 23.859 0.0
912 2 67.6227 24.582 0.0
913 1 70.1273 21.69 0.0
914 2 68.875 22.413 0.0
915 1 68.875 23.859 0.0
916 2 70.1273 24.582 0.0
917 1 72.6318 21.69 0.0
918 2 71.3795 22.413 0.0
919 1 71.3795 23.859 0.0
920 2 72.6318 24.582 0.0
921 1 75.1364 21.69 0.0
922 2 73.8841 22.413 0.0
923 1 73.8841 23.859 0.0
924 2 75.1364 24.582 0.0
925 1 77.6409 21.69 0.0
926 2 76.3886 22.413 0.0
927 1 76.3886 23.859 0.0
928 2 77.6409 24.582 0.0
929 1 80.1455 21.69 0.0
930 2 78.8932 22.413 0.0
931 1 78.8932 23.859 0.0
932 2 80.1455 24.582 0.0
933 1 82.65 21.69 0.0
934 2 81.3977 22.413 0.0
935 1 81.3977 23.859 0.0
936 2 82.65 24.582 0.0
937 1 85.1545 21.69 0.0
938 2 83.9023 22.413 0.0
939 1 83.9023 23.859 0.0
940 2 85.1545 24.582 0.0
941 1 87.6591 21.69 0.0
942 2 86.4068 22.413 0.0
943 1 86.4068 23.859 0.0
944 2 87.6591 24.582 0.0
945 1 90.1636 21.69 0.0
946 2 88.9114 22.413 0.0
947 1 88.9114 23.859 0.0
948 2 90.1636 24.582 0.0
949 1 92.6682 21.69 0.0
950 2 91.4159 22.413 0.0
951 1 91.4159 23.859 0.0
952 2 92.6682 24.582 0.0
953 1 95.1727 21.69 0.0
954 2 93.9205 22.413 0.0
955 1 93.9205 23.859 0.0
956 2 95.1727 24.582 0.0
957 1 97.6773 21.69 0.0
958 2 96.425 22.413 0.0
959 1 96.425 23.859 0.0
960 2 97.6773 24.582 0.0
961 1 0.0 26.028 0.0
962 2 -1.25227 26.751 0.0
963 1 -1.25227 28.197 0.0
964 2 0.0 28.92 0.0
965 1 2.50455 26.028 0.0
966 2 1.25227 26.751 0.0
967 1 1.25227 28.197 0.0
968 2 2.50455 28.92 0.0
969 1 5.00909 26.028 0.0
970 2 3.75682 26.751 0.0
971 1 3.75682 28.197 0.0
972 2 5.00909 28.92 0.0
973 1 7.51364 26.028 0.0
974 2 6.26136 26.751 0.0
975 1 6.26136 28.197 0.0
976 2 7.51364 28.92 0.0
977 1 10.0182 26.028 0.0
978 2 8.76591 26.751 0.0
979 1 8.76591 28.197 0.0
980 2 10.0182 28.92 0.0
981 1 12.5227 26.028 0.0
982 2 11.2705 26.751 0.0
983 1 11.2705 28.197 0.0
984 2 12.5227 28.92 0.0
985 1 15.0273 26.028 0.0
986 2 13.775 26.751 0.0
987 1 13.775 28.197 0.0
988 2 15.0273 28.92 0.0
989 1 17.5318 26.028 0.0
990 2 16.2795 26.751 0.0
991 1 16.2795 28.197 0.0
992 2 17.5318 28.92 0.0
993 1 20.0364 26.028 0.0
994 2 18.7841 26.751 0.0
995 1 18.7841 28.197 0.0
996 2 20.0364 28.92 0.0
997 1 22.5409 26.028 0.0
998 2 21.2886 26.751 0.0
999 1 21.2886 28.197 0.0
1000 2 22.5409 28.92 0.0
1001 1 25.0455 26.028 0.0
1002 2 23.7932 26.751 0.0
1003 1 23.7932 28.197 0.0
1004 2 25.0455 28.92 0.0
1005 1 27.55 26.028 0.0
1006 2 26.2977 26.751 0.0
1007 1 26.2977 28.197 0.0
1008 2 27.55 28.92 0.0
1009 1 30.0545 26.028 0.0
1010 2 28.8023 26.751 0.0
1011 1 28.8023 28.197 0.0
1012 2 30.0545 28.92 0.0
1013 1 32.5591 26.028 0.0
1014 2 31.3068 26.751 0.0
1015 1 31.3068 28.197 0.0
1016 2 32.5591 28.92 0.0
1017 1 35.0636 26.028 0.0
1018 2 33.8114 26.751 0.0
1019 1 33.8114 28.197 0.0
1020 2 35.0636 28.92 0.0
1021 1 37.5682 26.028 0.0
1022 2 36.3159 26.751 0.0
1023 1 36.3159 28.197 0.0
1024 2 37.5682 28.92 0.0
1025 1 40.0727 26.028 0.0
1026 2 38.8205 26.751 0.0
1027 1 38.8205 28.197 0.0
1028 2 40.0727 28.92 0.0
1029 1 42.5773 26.028 0.0
1030 2 41.325 26.751 0.0
1031 1 41.325 28.197 0.0
1032 2 42.5773 28.92 0.0
1033 1 45.0818 26.028 0.0
1034 2 43.8295 26.751 0.0
1035 1 43.8295 28.197 0.0
1036 2 45.0818 28.92 0.0
1037 1 47.5864 26.028 0.0
1038 2 46.3341 26.751 0.0
1039 1 46.3341 28.197 0.0
1040 2 47.5864 28.92 0.0
1041 1 50.0909 26.028 0.0
1042 2 48.8386 26.751 0.0
1043 1 48.8386 28.197 0.0
1044 2 50.0909 28.92 0.0
1045 1 52.5955 26.028 0.0
1046 2 51.3432 26.751 0.0
1047 1 51.3432 28.197 0.0
1048 2 52.5955 28.92 0.0
1049 1 55.1 26.028 0.0
1050 2 53.8477 26.751 0.0
1051 1 53.8477 28.197 0.0
1052 2 55.1 28.92 0.0
1053 1 57.6045 26.028 0.0
1054 2 56.3523 26.751 0.0
1055 1 56.3523 28.197 0.0
1056 2 57.6045 28.92 0.0
1057 1 60.1091 26.028 0.0
1058 2 58.8568 26.751 0.0
1059 1 58.8568 28.197 0.0
1060 2 60.1091 28.92 0.0
1061 1 62.6136 26.028 0.0
1062 2 61.3614 26.751 0.0
1063 1 61.3614 28.197 0.0
1064 2 62.6136 28.92 0.0
1065 1 65.1182 26.028 0.0
1066 2 63.8659 26.751 0.0
1067 1 63.8659 28.197 0.0
1068 2 65.1182 28.92 0.0
1069 1 67.6227 26.028 0.0
1070 2 66.3705 26.751 0.0
1071 1 66.3705 28.197 0.0
1072 2 67.6227 28.92 0.0
1073 1 70.1273 26.028 0.0
1074 2 68.875 26.751 0.0
1075 1 68.875 28.197 0.0
1076 2 70.1273 28.92 0.0
1077 1 72.6318 26.028 0.0
1078 2 71.3795 26.751 0.0
1079 1 71.3795 28.197 0.0
1080 2 72.6318 28.92 0.0
1081 1 75.1364 26.028 0.0
1082 2 73.8841 26.751 0.0
1083 1 73.8841 28.197 0.0
1084 2 75.1364 28.92 0.0
1085 1 77.6409 26.028 0.0
1086 2 76.3886 26.751 0.0
1087 1 76.3886 28.197 0.0
1088 2 77.6409 28.92 0.0
1089 1 80.1455 26.028 0.0
1090 2 78.8932 26.751 0.0
1091 1 78.8932 28.197 0.0
1092 2 80.1455 28.92 0.0
1093 1 82.65 26.028 0.0
1094 2 81.3977 26.751 0.0
1095 1 81.3977 28.197 0.0
1096 2 82.65 28.92 0.0
1097 1 85.1545 26.028 0.0
1098 2 83.9023 26.751 0.0
1099 1 83.9023 28.197 0.0
1100 2 85.1545 28.92 0.0
1101 1 87.6591 26.028 0.0
1102 2 86.4068 26.751 0.0
1103 1 86.4068 28.197 0.0
1104 2 87.6591 28.92 0.0
1105 1 90.1636 26.028 0.0
1106 2 88.9114 26.751 0.0
1107 1 88.9114 28.197 0.0
1108 2 90.1636 28.92 0.0
1109 1 92.6682 26.028 0.0
1110 2 91.4159 26.751 0.0
1111 1 91.4159 28.197 0.0
1112 2 92.6682 28.92 0.0
1113 1 95.1727 26.028 0.0
1114 2 93.9205 26.751 0.0
1115 1 93.9205 28.197 0.0
1116 2 95.1727 28.92 0.0
1117 1 97.6773 26.028 0.0
1118 2 96.425 26.751 0.0
1119 1 96.425 28.197 0.0
1120 2 97.6773 28.92 0.0
1121 1 0.0 30.366 0.0
1122 2 -1.25227 31.089 0.0
1123 1 -1.25227 32.535 0.0
1124 2 0.0 33.258 0.0
1125 1 2.50455 30.366 0.0
1126 2 1.25227 31.089 0.0
1127 1 1.25227 32.535 0.0
1128 2 2.50455 33.258 0.0
1129 1 5.00909 30.366 0.0
1130 2 3.75682 31.089 0.0
1131 1 3.75682 32.535 0.0
1132 2 5.00909 33.258 0.0
1133 1 7.51364 30.366 0.0
1134 2 6.26136 31.089 0.0
1135 1 6.26136 32.535 0.0
1136 2 7.51364 33.258 0.0
1137 1 10.0182 30.366 0.0
1138 2 8.76591 31.089 0.0
1139 1 8.76591 32.535 0.0
1140 2 10.0182 33.258 0.0
1141 1 12.5227 30.366 0.0
1142 2 11.2705 31.089 0.0
1143 1 11.2705 32.535 0.0
1144 2 12.5227 33.258 0.0
1145 1 15.0273 30.366 0.0
1146 2 13.775 31.089 0.0
1147 1 13.775 32.535 0.0
1148 2 15.0273 33.258 0.0
1149 1 17.5318 30.366 0.0
1150 2 16.2795 31.089 0.0
1151 1 16.2795 32.535 0.0
1152 2 17.5318 33.258 0.0
1153 1 20.0364 30.366 0.0
1154 2 18.7841 31.089 0.0
1155 1 18.7841 32.535 0.0
1156 2 20.0364 33.258 0.0
1157 1 22.5409 30.366 0.0
1158 2 21.2886 31.089 0.0
1159 1 21.2886 32.535 0.0
1160 2 22.5409 33.258 0.0
1161 1 25.0455 30.366 0.0
1162 2 23.7932 31.089 0.0
1163 1 23.7932 32.535 0.0
1164 2 25.0455 33.258 0.0
1165 1 27.55 30.366 0.0
1166 2 26.2977 31.089 0.0
1167 1 26.2977 32.535 0.0
1168 2 27.55 33.258 0.0
1169 1 30.0545 30.366 0.0
1170 2 28.8023 31.089 0.0
1171 1 28.8023 32.535 0.0
1172 2 30.0545 33.258 0.0
1173 1 32.5591 30.366 0.0
1174 2 31.3068 31.089 0.0
1175 1 31.3068 32.535 0.0
1176 2 32.5591 33.258 0.0
1177 1 35.0636 30.366 0.0
1178 2 33.8114 31.089 0.0
1179 1 33.8114 32.535 0.0
1180 2 35.0636 33.258 0.0
1181 1 37.5682 30.366 0.0
1182 2 36.3159 31.089 0.0
1183 1 36.3159 32.535 0.0
1184 2 37.5682 33.258 0.0
1185 1 40.0727 30.366 0.0
1186 2 38.8205 31.089 0.0
1187 1 38.8205 32.535 0.0
1188 2 40.0727 33.258 0.0
1189 1 42.5773 30.366 0.0
1190 2 41.325 31.089 0.0
1191 1 41.325 32.535 0.0
1192 2 42.5773 33.258 0.0
1193 1 45.0818 30.366 0.0
1194 2 43.8295 31.089 0.0
1195 1 43.8295 32.535 0.0
1196 2 45.0818 33.258 0.0
1197 1 47.5864 30.366 0.0
1198 2 46.3341 31.089 0.0
1199 1 46.3341 32.535 0.0
1200 2 47.5864 33.258 0.0
1201 1 50.0909 30.366 0.0
1202 2 48.8386 31.089 0.0
1203 1 48.8386 32.535 0.0
1204 2 50.0909 33.258 0.0
1205 1 52.5955 30.366 0.0
1206 2 51.3432 31.089 0.0
1207 1 51.3432 32.535 0.0
1208 2 52.5955 33.258 0.0
1209 1 55.1 30.366 0.0
1210 2 53.8477 31.089 0.0
1211 1 53.8477 32.535 0.0
1212 2 55.1 33.258 0.0
1213 1 57.6045 30.366 0.0
1214 2 56.3523 31.089 0.0
1215 1 56.3523 32.535 0.0
1216 2 57.6045 33.258 0.0
1217 1 60.1091 30.366 0.0
1218 2 58.8568 31.089 0.0
1219 1 58.8568 32.535 0.0
1220 2 60.1091 33.258 0.0