-563.26632636
-563.26492701
-563.26335134
-563.26148007
-563.25990602
-563.2586671
-563.25747385
-563.25631328
-563.25536951
-563.25389772
-563.24786968
-563.24447835
-563.24002717
-563.23502719
-563.2258009
-563.22197451
-563.21849027
-563.21695718
-563.21356352
-563.20927325
-563.20591694
-563.20426292
-563.20275095
-563.20084005
-563.19207751
-563.18441508
-563.17826428
-563.17326934
-563.1696704
-563.16476051
-563.16274378
-563.16034652
-563.15814107
-563.15861132
-563.15774744
-563.15712702
-563.15303413
-563.14409519
-563.13112488
-563.11741219
-563.10268605
-563.09001505
-563.07676542
-563.07425691
-563.07321188
-563.07353404
-563.07697237
-563.07797144
-563.07811271
-563.0771965
-563.07564743
-563.07378573
-563.06646074
-563.06370299
-563.06432204
-563.06933086
-563.07339324
-563.0723337
-563.06706498
-563.06079514
-563.06187139
-563.06672732
-563.06458106
-563.05140319
-563.03399446
-563.01576952
-562.99964261
-562.98799717
-563.00224608
-563.01494408
-563.02878887
-563.03234983
-563.02372797
-562.99890262
-562.97919259
-562.95593631
-562.9334199
-562.91904814
-562.91910023
-562.92003791
-562.92219643
-562.9386183
-562.94864384
-562.94870455
-562.93807133
-562.89840002
-562.87184246
-562.85198725
-562.84226738
-562.83504269
-562.83201922
-562.8279273
-562.82103755
-562.81929408
-562.82396924
-562.85059442
-562.86453441
-562.86749607
-562.8693487
-562.83270819
-562.81559424
-562.78847959
-562.78300183
-562.78526854
-562.78623036
-562.7913413
-562.81210927
-562.83226714
-562.85365246
-562.83935739
-562.81905343
-562.80573198
-562.78943104
-562.76751964
-562.7327975
-562.72008358
-562.72163614
-562.73633226
-562.75221494
-562.76600229
-562.79850032
-562.80469482
-562.81418008
-562.82256105
-562.82636163
-562.82004388
-562.79460048
-562.7405606
-562.74160728
-562.74586758
-562.74672157
-562.74831214
-562.73359555
-562.71313988
-562.69307446
-562.651012
-562.66763544
-562.67652327
-562.67326823
-562.65754501
-562.64373365
-562.61957623
-562.58740183
-562.54532553
-562.50681214
-562.48751768
-562.49030806
-562.50593003
-562.58300545
-562.63112328
-562.66939082
-562.6828889
-562.69823838
-562.71076144
-562.7110354
-562.70488596
-562.69494112
-562.69421874
-562.59284906
-562.57731653
-562.56443076
-562.55404834
-562.55817189
-562.56238556
-562.50803998
-562.47715929
-562.46319872
-562.43983219
-562.44146024
-562.47322387
-562.49611418
-562.52265711
-562.55985569
-562.55358881
-562.53248459
-562.45398339
-562.42557294
-562.41746573
-562.42302881
-562.43013881
-562.42429774
-562.41924955
-562.41535707
-562.37403048
-562.3553881
-562.34198096
-562.33908371
-562.34642571
-562.35086187
-562.3617215
-562.38758616
-562.42370185
-562.45463589
-562.47773156
-562.48076406
-562.47707818
-562.46541661
-562.45386675
-562.40228674
-562.37320971
-562.35300078
-562.33539656
-562.25441289
-562.244032
-562.23407331
-562.22896953
-562.22570393
-562.20396239
-562.15966988
-562.10328754
-562.05720349
-562.03254641
-562.02407108
-562.03886146
-562.0729025
-562.10422552
-562.13908791
-562.20100157
-562.21811763
-562.25384098
-562.29080428
-562.2924054
-562.26519357
-562.22972178
-562.24658977
-562.23495742
-562.1793281
-562.16820948
-562.18504759
-562.2028316
-562.20226843
-562.1865601
-562.17331948
-562.15738319
-562.14756091
-562.16510849
-562.17145052
-562.144105
-562.11321655
-562.10741609
-562.10099393
-562.1100873
-562.14161458
-562.16029642
-562.13023236
-562.11184455
-562.09660845
-562.10970003
-562.136672
-562.14197265
-562.13199694
-562.12558892
-562.13505938
-562.14450717
-562.15199921
-562.16750046
-562.16602626
-562.1037896
-562.07087029
-562.07600559
-562.07505857
-562.07750417
-562.0895393
-562.06214008
-561.97119408
-561.92854571
-561.92023755
-561.93949835
-561.98370495
-562.01220906
-561.99151776
-561.99832353
-561.97721707
-561.91691855
-561.85382851
-561.83912191
-561.83100778
-561.85485476
-561.8909297
-561.9374617
-562.02184536
-562.07431332
-562.09157758
-562.07957783
-562.02435564
-561.88262919
-561.82825725
-561.80192721
-561.79038515
-561.80642247
-561.89530932
-561.89724657
-561.91124639
-561.90889609
-561.78003414
-561.70199839
-561.62362161
-561.5455811
-561.52256072
-561.5258247
-561.5922282
-561.64854316
-561.72785343
-561.79740324
-561.85903109
-561.90326355
-561.90822836
-561.90180235
-561.83246668
-561.78632448
-561.7468592
-561.68190645
-561.54431372
-561.65190423
-561.68665905
-561.70194741
-561.8142153
-561.88489502
-561.90757377
-561.863939
-561.82661649
-561.95675776
-562.02766371
-562.00657257
-561.99004728
-561.95615321
-561.89915911
-561.82697282
-561.75934113
-561.70341763
-561.61480319
-561.60188895
-561.59325473
-561.58916004
-561.56473499
-561.5638813
-561.5094674
-561.50323533
-561.48926716
-561.46034075
-561.4736781
-561.51536576
-561.59256226
-561.71260261
-561.70576474
-561.67311821
-561.56158966
-561.49070621
-561.43191674
-561.59631006
-561.63626564
-561.64651581
-561.63666854
-561.57759223
-561.5220244
-561.36449945
-561.31631366
-561.28945134
-561.29264914
-561.30891621
-561.28149912
-561.26077358
-561.25145742
-561.27505543
-561.26998815
-561.2681261
-561.2763719
-561.2759309
-561.259218
-561.25571101
-561.25589126
-561.24871904
-561.2584866
-561.28482295
-561.31884287
-561.32542125
-561.25747018
-561.20491018
-561.19138905
-561.29841583
-561.36777459
-561.48871438
-561.51963483
-561.54327179
-561.54234022
-561.53788431
-561.5385349
-561.57373523
-561.59666362
-561.64883226
-561.63547469
-561.5774334
-561.52033971
-561.47154591
-561.43879863
-561.36296139
-561.29776106
-561.28504209
-561.30124107
-561.31525402
-561.30775912
-561.31552062
-561.2754515
-561.25968333
-561.23323626
-561.22564783
-561.24071902
-561.28746419
-561.41960085
-561.47385442
-561.42786988
-561.24992447
-561.2299901
-561.23015825
-561.23550296
-561.20713966
-561.23527631
-561.26454913
-561.31049665
-561.30661568
-561.28076722
-561.29028266
-561.26478285
-561.19701756
-561.13254057
-561.00440207
-560.88152774
-560.81813428
-560.84766381
-560.90434789
-561.11349288
-561.19322756
-561.25675968
-561.24497251
-560.95069832
-560.9041375
-560.87062735
-560.94489506
-561.00246371
-560.9743077
-560.95319116
-560.94624576
-560.9053335
-560.90420233
-560.89857089
-560.88808518
-560.96897916
-561.04204802
-561.0719239
-561.07971457
-561.06162857
-560.88843503
-560.83370303
-560.84844646
-560.86474318
-560.85949475
-560.89364826
-560.85593762
-560.81930889
-560.83217408
-560.87430508
-560.91230051
-561.00400449
-561.04795807
-561.02337521
-560.9997702
-561.05289738
-561.14919737
-561.28231823
-561.44344831
-561.79025456
-561.94671856
-562.17458724
-562.25030955
-562.36045834
-562.40965268
-562.46253723
-562.51946653
-562.5799626
-562.63579844
-562.68735087
-562.72603486
-562.75398487
-562.77531927
-562.79311495
-562.80963711
-562.82437333
-562.8413901
-562.85583499
-562.86775983
-562.88532341
-562.89544755
-562.90520736
-562.91386468
-562.92151121
-562.93349597
-562.9436147
-562.95161725
-562.9641548
-562.96402878
-562.95845984
-562.9505183
-562.94107152
-562.93039607
-562.92064214
-562.91575683
-562.91490706
-562.91220988
-562.91111468
-562.91627585
-562.92081754
-562.92694309
-562.92921361
-562.92541932
-562.92359227
-562.92550573
-562.93463263
-562.94665113
-562.95395786
-562.95620327
-562.95306735
-562.94743548
-562.93968699
-562.93958804
-562.94337379
-562.94356409
-562.95018025
-562.9580848
-562.9541596
-562.93912709
-562.92306235
-562.90954039
-562.89872607
-562.90155663
-562.90278968
-562.90581486
-562.90969234
-562.91253038
-562.90736419
-562.88675592
-562.8530849
-562.8831487
-562.89524271
-562.90385884
-562.901859
-562.89595972
-562.8905525
-562.88691285
-562.87945639
-562.83471358
-562.80205989
-562.79555969
-562.79365956
-562.80147208
-562.80963846
-562.80634156
-562.78760602
-562.76328344
-562.74449792
-562.73585971
-562.73186115
-562.73180496
-562.73698806
-562.74826761
-562.74271994
-562.74594862
-562.75022276
-562.75102854
-562.75766836
-562.78010632
-562.77800674
-562.77227662
-562.75267343
-562.72559789
-562.7046286
-562.68956709
-562.67480777
-562.66424059
-562.66004156
-562.66639451
-562.67377411
-562.68560917
-562.68985891
-562.69924434
-562.70706624
-562.70476109
-562.67337104
-562.66446037
-562.66262141
-562.67328357
-562.66977756
-562.67315963
-562.67550594
-562.67582073
-562.67528485
-562.65678824
-562.63943739
-562.62607591
-562.62453592
-562.61913925
-562.60760101
-562.56645532
-562.542858
-562.54566096
-562.49624376
-562.47824643
-562.47796899
-562.49471983
-562.5059473
-562.52120429
-562.54043118
-562.5524093
-562.55013481
-562.54414158
-562.48701523
-562.4688217
-562.45413365
-562.46657965
-562.49103496
-562.51835216
-562.54947523
-562.5512287
-562.55324008
-562.55699445
-562.54952252
-562.5266789
-562.51690407
-562.52485635
-562.53352763
-562.54647152
-562.58018974
-562.55875991
-562.53217347
-562.51084511
-562.499477
-562.48436798
-562.47744407
-562.49082213
-562.506217
-562.51533324
-562.51708541
-562.50878202
-562.4592233
-562.3943391
-562.37180771
-562.35983144
-562.35512074
-562.3665131
-562.38101755
-562.37187695
-562.36383751
-562.37730937
-562.38593867
-562.4350029
-562.45901893
-562.47484696
-562.5108602
-562.48638208
-562.30034562
-562.26376954
-562.26682845
-562.27735267
-562.30230698
-562.32804987
-562.34747772
-562.35593567
-562.35783789
-562.36542062
-562.37473589
-562.37626996
-562.37658451
-562.34769994
-562.3282265
-562.30372679
-562.28072046
-562.27166154
-562.27272653
-562.26033284
-562.27420715
-562.2957768
-562.32141688
-562.3497675
-562.38005012
-562.38007762
-562.36617493
-562.34727356
-562.34976016
-562.35119732
-562.35383915
-562.35986532
-562.3412269
-562.32418048
-562.30826415
-562.30448533
-562.36685153
-562.3933884
-562.33677374
-562.27738012
-562.18754071
-562.09064399
-562.01423365
-561.98129151
-562.13738214
-562.23281464
-562.30377262
-562.33434514
-562.33478767
-562.28166254
-562.19133364
-562.10162626
-562.03683612
-562.03542291
-562.06347672
-562.09038099
-562.11894438
-562.1619768
-562.16357715
-562.15315991
-562.11226575
-562.07787295
-562.02252263
-562.03159548
-562.02299277
-562.01219962
-562.0104419
-562.03200637
-562.02283107
-562.03366039
-562.03536797
-562.00647734
-561.99528181
-562.00035385
-561.99322762
-562.01984466
-562.05704693
-562.06788082
-562.09982876
-562.1361433
-562.14579865
-562.1333617
-562.10606417
-562.05534084
-562.05243286
-562.05445835
-562.0623384
-562.10673814
-562.07556834
-562.04187381
-562.03920829
-562.04064152
-562.05808532
-562.07365725
-562.09761484
-562.07790877
-562.05208342
-562.05550445
-562.04236764
-562.03644258
-562.04448327
-562.05154285
-561.99272173
-561.86254205
-561.85143524
-561.90741084
-561.96675844
-562.01856199
-562.03882723
-562.05005048
-562.04162995
-562.00145908
-561.89673024
-561.93177301
-561.9328002
-561.91052554
-561.89065902
-561.86012762
-561.79909136
-561.71886528
-561.6412974
-561.59848622
-561.57401423
-561.54043125
-561.51971835
-561.54006352
-561.57248097
-561.63198276
-561.65739216
-561.58967471
-561.49883395
-561.18771001
-561.11381346
-561.04324733
-561.0051688
-561.04283206
-561.13369444
-561.22678752
-561.30236989
-561.42349823
-561.46636964
-561.49487923
-561.49368411
-561.51783324
-561.55578105
-561.5541798
-561.58666253
-561.64777178
-561.71445651
-561.81373401
-561.88324413
-561.8804043
-561.86485094
-561.76225439
-561.64172721
-561.45487771
-561.40946213
-561.41195661
-561.43344967
-561.50072018
-561.54930184
-561.51992919
-561.49722168
-561.4699973
-561.47015269
-561.48596564
-561.49630822
-561.49617821
-561.40656926
-561.35125801
-561.28408005
-561.16033778
-561.40834051
-561.56479692
-561.60163587
-561.59654425
-561.54493716
-561.42027199
-561.39106124
-561.38413798
-561.3801643
-561.3894593
-561.40353796
-561.40720894
-561.38238539
-561.29940501
-561.2695045
-561.2934265
-561.63070218
-561.64681658
-561.64747701
-561.63659049
-561.57698345
-561.49979989
-561.41826282
-561.30051605
-561.21078816
-561.15624395
-561.11241652
-561.15385915
-561.19435233
-561.21956829
-561.28472587
-561.31836068
-561.31717866
-561.31533787
-561.28750261
-561.2291406
-561.34578719
-561.45001152
-561.45286607
-561.41121715
-561.36724172
-561.31630248
-561.2844245
-561.27531239
-561.27622468
-561.28247648
-561.26657036
-561.23049976
-561.22784142
-561.20589375
-561.17839761
-561.19480758
-561.18329197
-561.1857536
-561.16760825
-561.13155116
-561.0759825
-561.01956713
-560.93559929
-560.85387743
-560.84121326
-560.83812414
-560.8737118
-560.93398502
-561.01807726
-561.06177477
-561.13028267
-561.19969723
-561.25714861
-561.29220565
-561.25975125
-561.24277318
-561.20896901
-561.17281015
-561.11153877
-561.04172628
-561.00327887
-561.00765808
-561.04813913
-561.08869133
-561.13003783
-561.09201279
-561.04368275
-560.98277728
-560.93685085
-560.91881384
-560.9183845
-560.91219783
-560.95285112
-561.01624355
-561.07811305
-561.16006187
-561.24583519
-561.28739377
-561.32966709
-561.38618489
-561.41633887
-561.39801239
-561.33840262
-561.27148749
-561.20084958
-561.12128372
-561.05106093
-561.03750627
-561.03787994
-561.04137691
-561.03431162
-560.99114724
-560.95399263
-560.96301682
-560.98919701
-560.96315514
-560.9284223
-560.93203736
-560.95879316
-561.01356706
-561.04073945
-561.01627694
-560.94865892
-560.90841065
-561.02337521
-560.97875082
-560.89405321
-560.75103278
-560.65463269
-560.61132905
-560.63662556
-560.71669719
-560.97844747
-561.02667157
-561.05347862
-561.02219334
-560.99377144
-561.01713001
-561.03713105
-561.04381696
-561.06557049
-561.02439766
-560.90194178
-560.77118686
-560.7790524
-560.84149141
-560.88774154
-560.87015611
-560.85778932
-560.86719105
-560.84452958
-560.83111219
-560.87677893
-560.90283363
-560.83548884
-560.77640423
-560.73793366
-560.70699408
-560.73121471
-560.7182864
-560.74344685
-560.74215434
-560.69779173
-560.64144097
-560.5944484
-560.62272132
-560.65310345
-560.63365216
-560.59777657
-560.52854681
-560.48537327
-560.50505465
-560.56308923
-560.74525145
-560.79572739
-560.82445165
-560.80987625
-560.75740633
-560.67276284
-560.62597821
-560.56120158
-560.55969779
-560.54871987
-560.5338602
-560.52446159
-560.53757508
-560.50454777
-560.50045984
-560.56151579
-560.62583208
-560.57545955
-560.51001423
-560.49243862
-560.53097247
-560.56269919
-560.54796563
-560.65837242
-560.73044969
-560.81369628
-560.85166012
-560.82707198
-560.5986073
-560.39956856
-560.31562658
-560.21481897
-560.18875004
-560.16265984
-560.27049326
-560.60089892
-560.76915991
-560.88149449
-560.95438906
-560.93604217
-560.86410946
-560.7470308
-560.60090554
-560.47306131
-560.40039712
-560.38450344
-560.39732558
-560.4859186
-560.65449502
-560.85167662
-561.04717824
-561.21861581
-561.21471343
-561.11269422
-560.99577108
-560.7903146
-560.77106938
-560.82306421
-560.80497472
-560.79015208
-560.68559262
-560.59451081
-560.50318806
-560.47828485
-560.61910482
-560.72331171
-560.80920965
-560.85115532
-560.87452406
-560.92618449
-561.0080489
-561.08197972
-561.12850438
-561.14393651
-561.17986597
-561.22457104
-561.2855551
-561.26748478
-561.2139096
-560.8861228
-560.76198055
-560.73597611
-560.82795062
-560.92882079
-561.14660308
-561.23319369
-561.23571816
-561.19485859
-561.07907554
-560.93567336
-560.74013384
-560.58026564
-560.40248742
-560.41872383
-560.45436358
-560.50192386
-560.56196214
-560.60067482
-560.62848787
-560.61177876
-560.56498762
-560.54354485
-560.54101981
-560.63231006
-560.75396757
-560.91010012
-561.01087644
-561.21742901
-561.28279798
-561.31782907
-561.31602726
-561.27472597
-561.20114174
-561.18918388
-561.38055307
-561.48892567
-561.51936954
-561.46727292
-561.37278692
-561.28639347
-561.16124895
-561.10393648
-561.11395262
-561.15009124
-561.15324433
-561.08464497
-560.9825333
-560.89395862
-560.82748287
-560.72221002
-560.47741567
-560.3848482
-560.3179391
-560.32923545
-560.38264355
-560.44476776
-560.50942658
-560.57772956
-560.53208288
-560.44456573
-560.47762839
-560.77252081
-560.90381045
-561.0043924
-561.03665565
-561.01575689
-560.97618698
-560.90185449
-560.80564365
-560.67676438
-560.5407975
-560.45856061
-560.49710523
-560.5176834
-560.56400648
-560.61953887
-560.6704992
-560.6927968
-560.69311521
-560.70171135
-560.68789837
-560.65267722
-560.59527321
-560.51761499
-560.52187079
-560.56366187
-560.64234151
-560.70596416
-560.80594684
-560.90947771
-560.95276282
-560.8902275
-560.79229506
-560.63967103
-560.66179586
-560.70549989
-560.74475251
-560.75462434
-560.93996061
-561.06244873
-561.17232906
-561.30051419
-561.25767508
-561.16967549
-561.06510061
-560.98367922
-560.8314263
-560.77596366
-560.7473134
-560.72350131
-560.69354579
-560.64508495
-560.57369276
-560.56236309
-560.5610135
-560.48436434
-560.46072647
-560.4350668
-560.43354653
-560.45534289
-560.48334693
-560.55100835
-560.59459327
-560.62060443
-560.64141392
-560.71778903
-560.82552056
-560.90354706
-560.9701564
-561.10923329
-561.13691676
-561.15358528
-561.18039384
-561.24139851
-561.33135342
-561.39724434
-561.40232088
-561.34135854
-561.28765214
-561.28637473
-561.2896706
-561.30040068
-561.27086719
-561.24924687
-561.32272983
-561.300057
-561.23844958
-560.95988063
-560.8053676
-560.73647851
-560.63103247
-560.57630811
-560.55499744
-560.58872264
-560.62298465
-560.66131273
-560.6074252
-560.58170722
-560.58867132
-560.60887902
-560.60233287
-560.63745026
-560.70972447
-560.74013145
-560.7859855
-560.73437375
-560.58421616
-560.47362751
-560.34154998
-560.19888838
-560.09120082
-560.07000519
-560.175525
-560.333995
-560.40228309
-560.400582
-560.44921381
-560.52737833
-560.63853714
-560.68049762
-560.73240788
-560.75473171
-560.78417985
-560.79820288
-560.85039606
-560.78615077
-560.71054384
-560.68168463
-560.64396755
-560.61498736
-560.60033481
-560.63781811
-560.72077511
-560.80866231
-560.8901877
-560.98061892
-561.03415481
-561.05498132
-561.08315865
-561.05740363
-561.01791166
-560.85422677
-560.7997577
-560.76854068
-560.7470367
-560.73728543
-560.72142847
-560.71537795
-560.7260581
-560.73343976
-560.7429449
-560.72501586
-560.71922946
-560.7147426
-560.64661237
-560.61952997
-560.55696905
-560.53537985
-560.54375662
-560.53121945
-560.48634602
-560.4286339
-560.36492161
-560.42836669
-560.49021967
-560.57818284
-560.61336637
-560.54108793
-560.48396557
-560.46219938
-560.55432917
-560.65058946
-560.81653408
-560.97651775
-560.97536674
-560.94974096
-560.86071887
-560.66426208
-560.63556454
-560.53573478
-560.52386884
-560.56459293
-560.74928331
-560.79430932
-560.7918075
-560.76114144
-560.6666045
-560.5120173
-560.36740987
-560.23582157
-560.16965208
-560.14683482
-560.30079924
-560.36796134
-560.46005545
-560.61984658
-560.64562938
-560.68716229
-560.688627
-560.68145923
-560.64010209
-560.69688893
-560.69489367
-560.73789098
-560.79801316
-560.82396042
-560.82791866
-560.79093938
-560.72844449
-560.67659607
-560.73044118
-560.80712309
-560.82237917
-560.79536544
-560.76706873
-560.61294474
-560.50379366
-560.39187626
-560.25669188
-560.27385438
-560.43269286
-560.74156292
-560.84796932
-560.91915764
-560.92264518
-560.87567932
-560.833535
-560.78534317
-560.69081917
-560.56048197
-560.45272536
-560.41111167
-560.44498762
-560.47859834
-560.4795734
-560.4281749
-560.27444886
-560.27906499
-560.34495189
-560.40201552
-560.4768759
-560.55453003
-560.60360848
-560.6325123
-560.6346425
-560.58693986
-560.68225617
-560.80791556
-560.91830505
-560.92621898
-560.90568979
-560.91594426
-560.89302962
-560.8162286
-560.80879203
-560.84222614
-560.92250377
-561.00820112
-561.30168911
-561.40608778
-561.34506594
-561.23616532
-561.09452115
-560.85310503
-560.83590798
-560.84568174
-560.88196441
-560.89336681
-560.84908533
-560.79766335
-560.84278689
-560.86481612
-560.86512914
-560.89727273
-560.99304857
-561.08129867
-561.1897243
-561.27474327
-561.2969977
-561.27135447
-561.22661744
-561.23674402
-561.21823193
-561.18524391
-561.17703457
-561.17273758
-561.14610414
-561.10992802
-561.1163244
-561.13689979
-561.13777429
-561.12268072
-561.13103745
-561.14832455
-561.17087087
-561.13299671
-561.10524552
-561.06642641
-561.03258195
-560.96853444
-560.88264309
-560.79421163
-560.76525566
-560.78975027
-560.86129356
-561.06485197
-561.01405384
-560.72671817
-560.61780537
-560.55348708
-560.63990437
-560.72888333
-560.83131372
-560.93197715
-560.96855343
-560.94732006
-560.90941184
-560.91861247
-560.94115751
-560.9212642
-560.87501265
-560.87023797
-560.78796444
-560.80833099
-560.90951185
-560.9709613
-561.00449493
-561.01378077
-560.9945346
-560.89484275
-560.80523486
-560.7780001
-560.59051801
-560.43432111
-560.39926067
-560.47443616
-560.53325946
-560.68626492
-560.84124913
-560.92982993
-560.97966428
-560.96768173
-560.96183717
-560.97143375
-561.04115855
-561.07982345
-561.10507646
-561.09342344
-561.01318041
-560.97973317
-560.94455226
-560.92510822
-560.92350927
-560.97158659
-561.02639088
-560.97988223
-560.88992059
-560.82720849
-560.80238848
-560.84514566
-560.93034081
-561.0207153
-561.12810738
-561.21063789
-561.1902781
-561.17891138
-561.15883722
-561.09916986
-561.0196491
-560.90427196
-560.76929703
-560.660414
-560.64463059
-560.5652202
-560.55893636
-560.55039921
-560.73962165
-560.78445365
-560.86776063
-560.91232886
-560.93991121
-560.9158268
-560.86278079
-560.7758124
-560.74060624
-560.71341548
-560.65311688
-560.65375261
-560.68239154
-560.70564309
-560.75935013
-560.86213633
-560.96558446
-561.04649312
-561.12008034
-561.15552861
-561.16071228
-561.16215821
-561.0876443
-560.93052538
-560.90589784
-560.87357232
-560.85212209
-560.83470029
-560.77964187
-560.71538876
-560.66844925
-560.72237267
-561.1385978
-561.24098732
-561.31001704
-561.34037297
-561.27843874
-561.13094086
-560.95042453
-560.7483616
-560.54124499
-560.55241628
-560.71941295
-560.77284669
-560.8417321
-560.89614392
-560.99450021
-561.08609381
-561.16179109
-561.19732534
-561.20099126
-561.27302422
-561.30613709
-561.30674548
-561.27808929
-561.22151709
-561.12314864
-561.00139187
-560.92001241
-560.84844126
-560.84599037
-560.89594577
-561.00404213
-561.06187281
-561.1068936
-561.06772867
-561.03323338
-560.99237873
-560.84546299
-560.84610625
-560.86995957
-560.76064695
-560.6968702
-560.6620913
-560.58902711
-560.56145918
-560.57877795
-560.58141065
-560.60165206
-560.66903911
-560.73681132
-560.8238193
-561.01076695
-561.03708275
-561.06454749
-561.09759267
-561.0926638
-561.07340326
-561.14859989
-561.20828046
-561.25987641
-561.32017143
-561.38258616
-561.33358879
-561.33332388
-561.33467246
-561.36689674
-561.39905153
-561.40972342
-561.404764
-561.36649131
-561.33384954
-561.21964678
-561.17965469
-561.12014009
-561.0882058
-561.06447414
-561.08256632
-561.08299111
-561.07317776
-561.05971519
-561.01512822
-560.99447716
-560.9183494
-560.81372461
-560.70890693
-560.63217566
-560.58676943
-560.52947287
-560.56411481
-560.64605351
-560.6921012
-560.69026006
-560.63635321
-560.61266066
-560.64121575
-560.72083813
-560.82908342
-560.94363462
-561.05451016
-561.2302334
-561.24237003
-561.25036339
-561.20762571
-561.24227468
-561.27426223
-561.26470025
-561.17913941
-561.05898898
-560.79373407
-560.73224414
-560.63838695
-560.63512248
-560.70564092
-560.78118998
-560.8590874
-560.9142276
-560.92223163
-560.91992445
-560.868933
-560.87098203
-561.11998991
-561.08438087
-560.87826151
-560.75539331
-560.67754602
-560.65763075
-560.74506061
-560.84428287
-560.89795596
-560.93853511
-560.88397693
-560.76757411
-560.64956911
-560.39819659
-560.39020844
-560.43986854
-560.52225545
-560.62251086
-560.69496318
-560.75899785
-560.807265
-560.80396508
-560.74700326
-560.69688698
-560.77414104
-560.86825254
-560.90570489
-560.92370082
-560.89597127
-560.88418286
-560.76338396
-560.62037316
-560.60882802
-560.78043987
-560.92207546
-561.02486699
-561.08893051
-561.14167227
-561.17360704
-561.19720737
-561.18502922
-561.19588972
-561.19876426
-561.19417915
-561.17693395
-561.12596522
-561.0939621
-561.12684624
-561.14144789
-561.10798464
-561.05371304
-560.92032959
-560.9254317
-560.91820283
-560.91025052
-560.7474844
-560.76632005
-560.80340125
-560.80725853
-560.8190004
-560.86059358
-560.90127356
-560.92927468
-560.93535622
-560.89900376
-560.87841213
-560.70139723
-560.66082129
-560.6506733
-560.63912143
-560.70795325
-560.70410896
-560.66936093
-560.62778567
-560.53230384
-560.61167324
-560.69232922
-560.75178987
-560.79218044
-560.79472975
-560.73651268
-560.72313868
-560.69268739
-560.72470353
-560.79571983
-560.8230028
-560.83686086
-560.87105077
-560.88793501
-560.83598983
-560.72682226
-560.64826136
-560.6129457
-560.63168046
-560.72779107
-560.8705222
-560.99305222
-561.08170094
-561.08932611
-561.02786175
-560.96501217
-560.90149984
-560.88924694
-560.91956296
-561.00730693
-561.12156378
-561.22808722
-561.42408107
-561.40464107
-561.30731008
-561.17345719
-561.04946491
-560.92117061
-560.77573499
-560.64360656
-560.56280758
-560.5946818
-560.66973943
-560.72382109
-560.95335091
-561.01816335
-560.98988349
-560.89833331
-560.74511384
-560.7156899
-560.76684917
-560.78039478
-560.83027709
-560.8759906
-560.79220999
-560.68036452
-560.56363739
-560.43181946
-560.35696192
-560.29417713
-560.31674423
-560.39024332
-560.47797073
-560.57725238
-560.52326536
-560.47388054
-560.44249434
-560.57351797
-560.65502799
-560.73369224
-560.95118841
-561.07087932
-561.07412987
-561.04536462
-561.00778861
-560.88419734
-560.86654852
-560.87361693
-560.8612574
-560.81454002
-560.75684584
-560.67434439
-560.61055968
-560.56225933
-560.58309274
-560.69139148
-560.70041961
-560.71145492
-560.70148777
-560.66960493
-560.61649628
-560.75339965
-560.80327861
-560.84307114
-560.84490972
-560.81836782
-560.7174626
-560.62302259
-560.58306868
-560.57321322
-560.60458508
-560.63975251
-560.68787651
-560.74333157
-560.79311716
-560.81708862
-560.86581492
-560.89484287
-560.87861234
-560.8372803
-560.79998424
-560.75639599
-560.76454356
-560.83754375
-560.8830227
-560.89557061
-560.87433595
-560.82887341
-560.76725166
-560.74001443
-560.76953557
-560.8653431
-561.05471286
-561.08097063
-560.84863029
-560.70591474
-560.64191106
-560.68519399
-560.78820303
-560.82501947
-560.89080014
-561.03576472
-561.04840926
-560.9820478
-560.86427262
-560.82394941
-560.76422422
-560.69182588
-560.65742735
-560.66876878
-560.77644886
-560.97895754
-561.02867426
-561.09635435
-561.1152975
-561.10369892
-561.07345992
-561.00651132
-560.97375523
-560.92823009
-560.89601125
-560.83314842
-560.78133748
-560.71570603
-560.64541943
-560.62792262
-560.64211619
-560.70031742
-560.74108587
-560.75475875
-560.81041891
-560.82182122
-560.89920351
-560.99055199
-561.05352052
-561.09177201
-561.10719079
-561.06982313
-561.04838571
-561.00852247
-560.9579109
-560.95985153
-560.98522013
-561.14647827
-561.2628799
-561.4387173
-561.48407257
-561.48468977
-561.48242147
-561.45263095
-561.41820823
-561.37472677
-561.37440966
-561.3346454
-561.27775777
-561.2283718
-561.16141525
-561.11476387
-561.01036852
-560.93906136
-560.90585964
-560.9574875
-561.03416656
-561.0651104
-561.04033324
-560.95017993
-560.83040579
-560.74343429
-560.66285543
-560.67280828
-560.72949232
-560.75823476
-560.77247177
-560.81204004
-560.84772183
-560.76819024
-560.75034262
-560.73295055
-560.68672597
-560.58702795
-560.43802864
-560.40570991
-560.38831113
-560.37670755
-560.43829601
-560.47173229
-560.51154701
-560.47698378
-560.41396007
-560.46557478
-560.55674831
-560.57347959
-560.56402405
-560.50647442
-560.46786532
-560.49667622
-560.54782668
-560.602963
-560.68047169
-560.77929605
-560.8416629
-560.95244984
-561.01321276
-561.09101868
-561.14262372
-561.15574002
-561.13100667
-561.07830297
-560.97277334
-560.90059688
-560.82999443
-560.78788612
-560.76522689
-560.77196005
-561.05271455
-561.07332227
-561.03744524
-560.96218092
-560.86763679
-560.8104619
-560.78708669
-560.76805097
-560.80418795
-560.86175809
-560.84799504
-560.87753702
-560.88524181
-560.87224768
-560.84473297
-560.76646872
-560.76925308
-560.77286431
-560.83643633
-560.83790843
-560.81492557
-560.77914207
-560.61452176
-560.54322921
-560.64469813
-560.7370686
-560.79105451
-560.81807945
-560.83987698
-561.0294371
-561.02008755
-560.98016917
-560.97087127
-560.9416004
-560.99767354
-561.03475046
-561.02799966
-560.98205416
-560.87501566
-560.7704199
-560.71293259
-560.67638475
-560.68759887
-560.68971034
-560.66459885
-560.64863555
-560.65948474
-560.66706316
-560.65796164
-560.66135108
-560.70735675
-560.80146694
-560.93101359
-561.01517998
-560.8589595
-560.75908043
-560.59257353
-560.4539286
-560.45849994
-560.49293573
-560.57162325
-560.66002867
-560.75545564
-560.81010669
-560.83527316
-560.7782909
-560.74255344
-560.73481584
-560.73622149
-560.72237555
-560.73537966
-560.73157942
-560.68581961
-560.61991836
-560.53483055
-560.49434958
-560.48422135
-560.43834262
-560.41042966
-560.39734756
-560.41645137
-560.47454916
-560.75221152
-560.80171354
-560.78780615
-560.67129723
-560.64320078
-560.63330332
-560.59658432
-560.62519623
-560.64022429
-560.60194077
-560.64505974
-560.70576989
-560.78179185
-560.87889525
-560.94160721
-560.98120251
-561.04188294
-560.81046564
-560.77918775
-560.79103422
-560.80746793
-560.8275506
-560.88778315
-560.91202568
-560.93221882
-560.91671037
-560.93703679
-560.8600308
-560.75291732
-560.67204457
-560.62855166
-560.59111357
-560.47034919
-560.42599217
-560.44790029
-560.51704424
-560.54732502
-560.53822944
-560.51384423
-560.49688717
-560.56486613
-560.67362166
-560.81490336
-560.94149969
-561.12789537
-561.13479177
-561.12339843
-561.10667872
-561.07194548
-561.04618519
-561.06820899
-561.06300689
-561.02423541
-560.87401683
-560.82635074
-560.7728187
-560.68007705
-560.60883316
-560.60033689
-560.62773655
-560.64141525
-560.68299119
-560.65240613
-560.56658683
-560.56034951
-560.54596513
-560.56234982
-560.58406715
-560.60256369
-560.54798882
-560.56053097
-560.57562267
-560.68667835
-560.67934959
-560.53737474
-560.41151978
-560.31347164
-560.19697891
-560.15187403
-560.13083088
-560.11118383
-560.14606724
-560.14373659
-560.17916174
-560.30477829
-560.42480379
-560.48844091
-560.52753079
-560.51707187
-560.46157589
-560.32721816
-560.16904651
-560.04409822